MODEL 1
REMARK VINA RESULT:      -8.2      0.000      0.000
REMARK  Name = C:\Users\atira\OneDrive\Desktop\pipeline\Automated_Molecular_Docking\first_stage_model_download\OR7D4_folder\ligands\Androstenone.pdb
REMARK  2 active torsions:
REMARK  status: ('A' for Active; 'I' for Inactive)
REMARK    1  A    between atoms: C_4  and  C_15
REMARK    2  A    between atoms: C_7  and  C_18
REMARK                            x       y       z     vdW  Elec       q    Type
REMARK                         _______ _______ _______ _____ _____    ______ ____
ROOT
ATOM      1  O   UNL     1       4.649  10.852  -2.510  0.00  0.00    -0.297 OA
ATOM      2  C   UNL     1       5.112   8.120   2.273  0.00  0.00    -0.001 C 
ATOM      3  C   UNL     1       6.467   8.187   3.055  0.00  0.00    -0.003 C 
ATOM      4  C   UNL     1       5.324   8.295   0.723  0.00  0.00    -0.025 C 
ATOM      5  C   UNL     1       6.156   8.041   4.546  0.00  0.00    +0.006 C 
ATOM      6  C   UNL     1       6.081   9.645   0.500  0.00  0.00    +0.002 C 
ATOM      7  C   UNL     1       5.501   6.681   4.871  0.00  0.00    -0.011 C 
ATOM      8  C   UNL     1       4.248   6.890   2.676  0.00  0.00    +0.005 C 
ATOM      9  C   UNL     1       7.214   9.491   2.754  0.00  0.00    +0.004 C 
ATOM     10  C   UNL     1       4.124   6.679   4.200  0.00  0.00    +0.011 C 
ATOM     11  C   UNL     1       7.414   9.706   1.256  0.00  0.00    +0.005 C 
ATOM     12  C   UNL     1       3.952   8.412  -0.001  0.00  0.00    +0.015 C 
ATOM     13  C   UNL     1       7.250   8.203   5.599  0.00  0.00    +0.031 C 
ATOM     14  C   UNL     1       6.275   9.989  -0.978  0.00  0.00    +0.078 C 
ATOM     15  C   UNL     1       6.096   7.089   0.131  0.00  0.00    +0.012 C 
ATOM     16  C   UNL     1       5.554   6.759   6.375  0.00  0.00    -0.024 C 
ATOM     17  C   UNL     1       4.059   8.773  -1.481  0.00  0.00    +0.075 C 
ATOM     18  C   UNL     1       6.311   5.434   4.450  0.00  0.00    +0.016 C 
ATOM     19  C   UNL     1       6.554   7.562   6.771  0.00  0.00    -0.030 C 
ATOM     20  C   UNL     1       4.946   9.975  -1.698  0.00  0.00    +0.134 C 
ENDROOT
TORSDOF 0
ENDMDL
MODEL 2
REMARK VINA RESULT:      -8.1      3.728      5.913
REMARK  Name = C:\Users\atira\OneDrive\Desktop\pipeline\Automated_Molecular_Docking\first_stage_model_download\OR7D4_folder\ligands\Androstenone.pdb
REMARK  2 active torsions:
REMARK  status: ('A' for Active; 'I' for Inactive)
REMARK    1  A    between atoms: C_4  and  C_15
REMARK    2  A    between atoms: C_7  and  C_18
REMARK                            x       y       z     vdW  Elec       q    Type
REMARK                         _______ _______ _______ _____ _____    ______ ____
ROOT
ATOM      1  O   UNL     1       7.974  13.839   6.911  0.00  0.00    -0.297 OA
ATOM      2  C   UNL     1       6.993   8.857   4.726  0.00  0.00    -0.001 C 
ATOM      3  C   UNL     1       5.544   8.269   4.802  0.00  0.00    -0.003 C 
ATOM      4  C   UNL     1       7.287   9.840   5.921  0.00  0.00    -0.025 C 
ATOM      5  C   UNL     1       5.343   7.358   3.589  0.00  0.00    +0.006 C 
ATOM      6  C   UNL     1       6.185  10.950   5.898  0.00  0.00    +0.002 C 
ATOM      7  C   UNL     1       6.327   6.167   3.591  0.00  0.00    -0.011 C 
ATOM      8  C   UNL     1       8.074   7.759   4.509  0.00  0.00    +0.005 C 
ATOM      9  C   UNL     1       4.497   9.388   4.852  0.00  0.00    +0.004 C 
ATOM     10  C   UNL     1       7.729   6.748   3.394  0.00  0.00    +0.011 C 
ATOM     11  C   UNL     1       4.766  10.376   5.984  0.00  0.00    +0.005 C 
ATOM     12  C   UNL     1       8.657  10.547   5.715  0.00  0.00    +0.015 C 
ATOM     13  C   UNL     1       3.983   6.734   3.288  0.00  0.00    +0.031 C 
ATOM     14  C   UNL     1       6.402  12.033   6.958  0.00  0.00    +0.078 C 
ATOM     15  C   UNL     1       7.319   9.078   7.269  0.00  0.00    +0.012 C 
ATOM     16  C   UNL     1       5.724   5.376   2.459  0.00  0.00    -0.024 C 
ATOM     17  C   UNL     1       8.941  11.657   6.725  0.00  0.00    +0.075 C 
ATOM     18  C   UNL     1       6.282   5.269   4.849  0.00  0.00    +0.016 C 
ATOM     19  C   UNL     1       4.417   5.657   2.329  0.00  0.00    -0.030 C 
ATOM     20  C   UNL     1       7.787  12.625   6.827  0.00  0.00    +0.134 C 
ENDROOT
TORSDOF 0
ENDMDL
MODEL 3
REMARK VINA RESULT:      -8.0      1.865      2.777
REMARK  Name = C:\Users\atira\OneDrive\Desktop\pipeline\Automated_Molecular_Docking\first_stage_model_download\OR7D4_folder\ligands\Androstenone.pdb
REMARK  2 active torsions:
REMARK  status: ('A' for Active; 'I' for Inactive)
REMARK    1  A    between atoms: C_4  and  C_15
REMARK    2  A    between atoms: C_7  and  C_18
REMARK                            x       y       z     vdW  Elec       q    Type
REMARK                         _______ _______ _______ _____ _____    ______ ____
ROOT
ATOM      1  O   UNL     1       2.648   8.930  -1.165  0.00  0.00    -0.297 OA
ATOM      2  C   UNL     1       4.990   9.317   3.826  0.00  0.00    -0.001 C 
ATOM      3  C   UNL     1       6.527   9.049   3.964  0.00  0.00    -0.003 C 
ATOM      4  C   UNL     1       4.365   8.521   2.620  0.00  0.00    -0.025 C 
ATOM      5  C   UNL     1       7.045   9.885   5.136  0.00  0.00    +0.006 C 
ATOM      6  C   UNL     1       5.163   8.915   1.333  0.00  0.00    +0.002 C 
ATOM      7  C   UNL     1       6.383   9.483   6.472  0.00  0.00    -0.011 C 
ATOM      8  C   UNL     1       4.230   9.153   5.174  0.00  0.00    +0.005 C 
ATOM      9  C   UNL     1       7.263   9.377   2.660  0.00  0.00    +0.004 C 
ATOM     10  C   UNL     1       4.904   9.864   6.367  0.00  0.00    +0.011 C 
ATOM     11  C   UNL     1       6.666   8.642   1.463  0.00  0.00    +0.005 C 
ATOM     12  C   UNL     1       2.888   8.952   2.395  0.00  0.00    +0.015 C 
ATOM     13  C   UNL     1       8.537   9.960   5.452  0.00  0.00    +0.031 C 
ATOM     14  C   UNL     1       4.601   8.280   0.059  0.00  0.00    +0.078 C 
ATOM     15  C   UNL     1       4.403   6.995   2.884  0.00  0.00    +0.012 C 
ATOM     16  C   UNL     1       7.254  10.285   7.405  0.00  0.00    -0.024 C 
ATOM     17  C   UNL     1       2.258   8.373   1.130  0.00  0.00    +0.075 C 
ATOM     18  C   UNL     1       6.535   7.998   6.870  0.00  0.00    +0.016 C 
ATOM     19  C   UNL     1       8.460  10.502   6.855  0.00  0.00    -0.030 C 
ATOM     20  C   UNL     1       3.130   8.602  -0.081  0.00  0.00    +0.134 C 
ENDROOT
TORSDOF 0
ENDMDL
MODEL 4
REMARK VINA RESULT:      -7.6      2.557      4.333
REMARK  Name = C:\Users\atira\OneDrive\Desktop\pipeline\Automated_Molecular_Docking\first_stage_model_download\OR7D4_folder\ligands\Androstenone.pdb
REMARK  2 active torsions:
REMARK  status: ('A' for Active; 'I' for Inactive)
REMARK    1  A    between atoms: C_4  and  C_15
REMARK    2  A    between atoms: C_7  and  C_18
REMARK                            x       y       z     vdW  Elec       q    Type
REMARK                         _______ _______ _______ _____ _____    ______ ____
ROOT
ATOM      1  O   UNL     1       2.337   7.919  -0.326  0.00  0.00    -0.297 OA
ATOM      2  C   UNL     1       7.369   8.911   1.737  0.00  0.00    -0.001 C 
ATOM      3  C   UNL     1       7.990   7.884   2.743  0.00  0.00    -0.003 C 
ATOM      4  C   UNL     1       5.796   8.907   1.798  0.00  0.00    -0.025 C 
ATOM      5  C   UNL     1       9.511   7.937   2.587  0.00  0.00    +0.006 C 
ATOM      6  C   UNL     1       5.317   7.441   1.534  0.00  0.00    +0.002 C 
ATOM      7  C   UNL     1      10.081   9.330   2.936  0.00  0.00    -0.011 C 
ATOM      8  C   UNL     1       8.019  10.321   1.842  0.00  0.00    +0.005 C 
ATOM      9  C   UNL     1       7.442   6.473   2.500  0.00  0.00    +0.004 C 
ATOM     10  C   UNL     1       9.562  10.301   1.872  0.00  0.00    +0.011 C 
ATOM     11  C   UNL     1       5.916   6.437   2.526  0.00  0.00    +0.005 C 
ATOM     12  C   UNL     1       5.208   9.794   0.663  0.00  0.00    +0.015 C 
ATOM     13  C   UNL     1      10.414   6.955   3.329  0.00  0.00    +0.031 C 
ATOM     14  C   UNL     1       3.794   7.307   1.474  0.00  0.00    +0.078 C 
ATOM     15  C   UNL     1       5.293   9.447   3.160  0.00  0.00    +0.012 C 
ATOM     16  C   UNL     1      11.548   8.984   2.921  0.00  0.00    -0.024 C 
ATOM     17  C   UNL     1       3.690   9.701   0.525  0.00  0.00    +0.075 C 
ATOM     18  C   UNL     1       9.749   9.849   4.354  0.00  0.00    +0.016 C 
ATOM     19  C   UNL     1      11.727   7.680   3.189  0.00  0.00    -0.030 C 
ATOM     20  C   UNL     1       3.224   8.267   0.454  0.00  0.00    +0.134 C 
ENDROOT
TORSDOF 0
ENDMDL
MODEL 5
REMARK VINA RESULT:      -7.4     18.499     20.255
REMARK  Name = C:\Users\atira\OneDrive\Desktop\pipeline\Automated_Molecular_Docking\first_stage_model_download\OR7D4_folder\ligands\Androstenone.pdb
REMARK  2 active torsions:
REMARK  status: ('A' for Active; 'I' for Inactive)
REMARK    1  A    between atoms: C_4  and  C_15
REMARK    2  A    between atoms: C_7  and  C_18
REMARK                            x       y       z     vdW  Elec       q    Type
REMARK                         _______ _______ _______ _____ _____    ______ ____
ROOT
ATOM      1  O   UNL     1      -9.955  -2.190  -4.666  0.00  0.00    -0.297 OA
ATOM      2  C   UNL     1      -9.832   2.727  -7.188  0.00  0.00    -0.001 C 
ATOM      3  C   UNL     1     -11.166   3.532  -7.344  0.00  0.00    -0.003 C 
ATOM      4  C   UNL     1     -10.089   1.175  -7.137  0.00  0.00    -0.025 C 
ATOM      5  C   UNL     1     -10.818   5.021  -7.351  0.00  0.00    +0.006 C 
ATOM      6  C   UNL     1     -11.096   0.903  -5.970  0.00  0.00    +0.002 C 
ATOM      7  C   UNL     1      -9.908   5.398  -8.541  0.00  0.00    -0.011 C 
ATOM      8  C   UNL     1      -8.742   3.171  -8.207  0.00  0.00    +0.005 C 
ATOM      9  C   UNL     1     -12.154   3.183  -6.225  0.00  0.00    +0.004 C 
ATOM     10  C   UNL     1      -8.564   4.701  -8.311  0.00  0.00    +0.011 C 
ATOM     11  C   UNL     1     -12.408   1.681  -6.129  0.00  0.00    +0.005 C 
ATOM     12  C   UNL     1      -8.774   0.419  -6.794  0.00  0.00    +0.015 C 
ATOM     13  C   UNL     1     -11.911   6.087  -7.349  0.00  0.00    +0.031 C 
ATOM     14  C   UNL     1     -11.368  -0.586  -5.746  0.00  0.00    +0.078 C 
ATOM     15  C   UNL     1     -10.620   0.657  -8.497  0.00  0.00    +0.012 C 
ATOM     16  C   UNL     1      -9.960   6.898  -8.397  0.00  0.00    -0.024 C 
ATOM     17  C   UNL     1      -8.964  -1.074  -6.537  0.00  0.00    +0.075 C 
ATOM     18  C   UNL     1     -10.466   5.054  -9.940  0.00  0.00    +0.016 C 
ATOM     19  C   UNL     1     -11.093   7.274  -7.783  0.00  0.00    -0.030 C 
ATOM     20  C   UNL     1     -10.069  -1.331  -5.541  0.00  0.00    +0.134 C 
ENDROOT
TORSDOF 0
ENDMDL
MODEL 6
REMARK VINA RESULT:      -7.4     17.680     18.990
REMARK  Name = C:\Users\atira\OneDrive\Desktop\pipeline\Automated_Molecular_Docking\first_stage_model_download\OR7D4_folder\ligands\Androstenone.pdb
REMARK  2 active torsions:
REMARK  status: ('A' for Active; 'I' for Inactive)
REMARK    1  A    between atoms: C_4  and  C_15
REMARK    2  A    between atoms: C_7  and  C_18
REMARK                            x       y       z     vdW  Elec       q    Type
REMARK                         _______ _______ _______ _____ _____    ______ ____
ROOT
ATOM      1  O   UNL     1     -11.695   6.465  -6.497  0.00  0.00    -0.297 OA
ATOM      2  C   UNL     1      -8.874   1.822  -7.515  0.00  0.00    -0.001 C 
ATOM      3  C   UNL     1      -7.709   1.858  -8.561  0.00  0.00    -0.003 C 
ATOM      4  C   UNL     1      -9.976   2.900  -7.832  0.00  0.00    -0.025 C 
ATOM      5  C   UNL     1      -6.679   0.804  -8.152  0.00  0.00    +0.006 C 
ATOM      6  C   UNL     1      -9.268   4.294  -7.897  0.00  0.00    +0.002 C 
ATOM      7  C   UNL     1      -7.271  -0.622  -8.167  0.00  0.00    -0.011 C 
ATOM      8  C   UNL     1      -9.421   0.385  -7.277  0.00  0.00    +0.005 C 
ATOM      9  C   UNL     1      -7.089   3.257  -8.649  0.00  0.00    +0.004 C 
ATOM     10  C   UNL     1      -8.324  -0.678  -7.057  0.00  0.00    +0.011 C 
ATOM     11  C   UNL     1      -8.135   4.333  -8.930  0.00  0.00    +0.005 C 
ATOM     12  C   UNL     1     -11.017   2.967  -6.678  0.00  0.00    +0.015 C 
ATOM     13  C   UNL     1      -5.348   0.676  -8.888  0.00  0.00    +0.031 C 
ATOM     14  C   UNL     1     -10.242   5.454  -8.110  0.00  0.00    +0.078 C 
ATOM     15  C   UNL     1     -10.718   2.562  -9.150  0.00  0.00    +0.012 C 
ATOM     16  C   UNL     1      -5.994  -1.398  -7.970  0.00  0.00    -0.024 C 
ATOM     17  C   UNL     1     -12.017   4.113  -6.808  0.00  0.00    +0.075 C 
ATOM     18  C   UNL     1      -7.878  -1.077  -9.514  0.00  0.00    +0.016 C 
ATOM     19  C   UNL     1      -4.941  -0.695  -8.417  0.00  0.00    -0.030 C 
ATOM     20  C   UNL     1     -11.323   5.432  -7.053  0.00  0.00    +0.134 C 
ENDROOT
TORSDOF 0
ENDMDL
MODEL 7
REMARK VINA RESULT:      -7.2     18.507     20.957
REMARK  Name = C:\Users\atira\OneDrive\Desktop\pipeline\Automated_Molecular_Docking\first_stage_model_download\OR7D4_folder\ligands\Androstenone.pdb
REMARK  2 active torsions:
REMARK  status: ('A' for Active; 'I' for Inactive)
REMARK    1  A    between atoms: C_4  and  C_15
REMARK    2  A    between atoms: C_7  and  C_18
REMARK                            x       y       z     vdW  Elec       q    Type
REMARK                         _______ _______ _______ _____ _____    ______ ____
ROOT
ATOM      1  O   UNL     1     -11.537  11.549 -13.982  0.00  0.00    -0.297 OA
ATOM      2  C   UNL     1     -10.503   7.616 -10.239  0.00  0.00    -0.001 C 
ATOM      3  C   UNL     1     -10.332   6.136 -10.722  0.00  0.00    -0.003 C 
ATOM      4  C   UNL     1     -11.443   8.438 -11.197  0.00  0.00    -0.025 C 
ATOM      5  C   UNL     1      -9.382   5.433  -9.751  0.00  0.00    +0.006 C 
ATOM      6  C   UNL     1     -10.846   8.341 -12.639  0.00  0.00    +0.002 C 
ATOM      7  C   UNL     1      -9.949   5.388  -8.315  0.00  0.00    -0.011 C 
ATOM      8  C   UNL     1     -10.869   7.714  -8.729  0.00  0.00    +0.005 C 
ATOM      9  C   UNL     1      -9.815   6.084 -12.164  0.00  0.00    +0.004 C 
ATOM     10  C   UNL     1      -9.996   6.832  -7.811  0.00  0.00    +0.011 C 
ATOM     11  C   UNL     1     -10.689   6.893 -13.118  0.00  0.00    +0.005 C 
ATOM     12  C   UNL     1     -11.442   9.941 -10.798  0.00  0.00    +0.015 C 
ATOM     13  C   UNL     1      -8.894   4.011 -10.018  0.00  0.00    +0.031 C 
ATOM     14  C   UNL     1     -11.615   9.176 -13.666  0.00  0.00    +0.078 C 
ATOM     15  C   UNL     1     -12.898   7.908 -11.132  0.00  0.00    +0.012 C 
ATOM     16  C   UNL     1      -8.934   4.458  -7.702  0.00  0.00    -0.024 C 
ATOM     17  C   UNL     1     -12.176  10.846 -11.785  0.00  0.00    +0.075 C 
ATOM     18  C   UNL     1     -11.333   4.715  -8.167  0.00  0.00    +0.016 C 
ATOM     19  C   UNL     1      -8.392   3.665  -8.640  0.00  0.00    -0.030 C 
ATOM     20  C   UNL     1     -11.716  10.612 -13.204  0.00  0.00    +0.134 C 
ENDROOT
TORSDOF 0
ENDMDL
MODEL 8
REMARK VINA RESULT:      -7.1     15.673     17.132
REMARK  Name = C:\Users\atira\OneDrive\Desktop\pipeline\Automated_Molecular_Docking\first_stage_model_download\OR7D4_folder\ligands\Androstenone.pdb
REMARK  2 active torsions:
REMARK  status: ('A' for Active; 'I' for Inactive)
REMARK    1  A    between atoms: C_4  and  C_15
REMARK    2  A    between atoms: C_7  and  C_18
REMARK                            x       y       z     vdW  Elec       q    Type
REMARK                         _______ _______ _______ _____ _____    ______ ____
ROOT
ATOM      1  O   UNL     1     -12.380  10.804   3.084  0.00  0.00    -0.297 OA
ATOM      2  C   UNL     1     -10.199  10.009   8.100  0.00  0.00    -0.001 C 
ATOM      3  C   UNL     1      -9.968  11.247   9.030  0.00  0.00    -0.003 C 
ATOM      4  C   UNL     1     -10.126  10.401   6.577  0.00  0.00    -0.025 C 
ATOM      5  C   UNL     1     -10.089  10.773  10.480  0.00  0.00    +0.006 C 
ATOM      6  C   UNL     1     -11.172  11.540   6.335  0.00  0.00    +0.002 C 
ATOM      7  C   UNL     1      -9.017   9.720  10.837  0.00  0.00    -0.011 C 
ATOM      8  C   UNL     1      -9.318   8.789   8.498  0.00  0.00    +0.005 C 
ATOM      9  C   UNL     1     -10.963  12.369   8.712  0.00  0.00    +0.004 C 
ATOM     10  C   UNL     1      -9.329   8.471  10.009  0.00  0.00    +0.011 C 
ATOM     11  C   UNL     1     -10.939  12.758   7.237  0.00  0.00    +0.005 C 
ATOM     12  C   UNL     1     -10.544   9.196   5.687  0.00  0.00    +0.015 C 
ATOM     13  C   UNL     1     -10.054  11.766  11.639  0.00  0.00    +0.031 C 
ATOM     14  C   UNL     1     -11.274  11.959   4.866  0.00  0.00    +0.078 C 
ATOM     15  C   UNL     1      -8.692  10.835   6.185  0.00  0.00    +0.012 C 
ATOM     16  C   UNL     1      -9.250   9.658  12.325  0.00  0.00    -0.024 C 
ATOM     17  C   UNL     1     -10.686   9.538   4.206  0.00  0.00    +0.075 C 
ATOM     18  C   UNL     1      -7.552  10.163  10.622  0.00  0.00    +0.016 C 
ATOM     19  C   UNL     1      -9.776  10.810  12.769  0.00  0.00    -0.030 C 
ATOM     20  C   UNL     1     -11.555  10.755   3.996  0.00  0.00    +0.134 C 
ENDROOT
TORSDOF 0
ENDMDL
MODEL 9
REMARK VINA RESULT:      -6.8     13.650     16.531
REMARK  Name = C:\Users\atira\OneDrive\Desktop\pipeline\Automated_Molecular_Docking\first_stage_model_download\OR7D4_folder\ligands\Androstenone.pdb
REMARK  2 active torsions:
REMARK  status: ('A' for Active; 'I' for Inactive)
REMARK    1  A    between atoms: C_4  and  C_15
REMARK    2  A    between atoms: C_7  and  C_18
REMARK                            x       y       z     vdW  Elec       q    Type
REMARK                         _______ _______ _______ _____ _____    ______ ____
ROOT
ATOM      1  O   UNL     1     -10.511  15.979  -8.420  0.00  0.00    -0.297 OA
ATOM      2  C   UNL     1      -5.922  16.421  -5.370  0.00  0.00    -0.001 C 
ATOM      3  C   UNL     1      -6.017  16.199  -3.823  0.00  0.00    -0.003 C 
ATOM      4  C   UNL     1      -7.276  16.959  -5.966  0.00  0.00    -0.025 C 
ATOM      5  C   UNL     1      -4.672  15.648  -3.345  0.00  0.00    +0.006 C 
ATOM      6  C   UNL     1      -8.400  15.946  -5.572  0.00  0.00    +0.002 C 
ATOM      7  C   UNL     1      -3.516  16.640  -3.601  0.00  0.00    -0.011 C 
ATOM      8  C   UNL     1      -4.662  17.237  -5.782  0.00  0.00    +0.005 C 
ATOM      9  C   UNL     1      -7.176  15.259  -3.471  0.00  0.00    +0.004 C 
ATOM     10  C   UNL     1      -3.355  16.753  -5.119  0.00  0.00    +0.011 C 
ATOM     11  C   UNL     1      -8.502  15.737  -4.056  0.00  0.00    +0.005 C 
ATOM     12  C   UNL     1      -7.209  16.990  -7.520  0.00  0.00    +0.015 C 
ATOM     13  C   UNL     1      -4.476  15.191  -1.902  0.00  0.00    +0.031 C 
ATOM     14  C   UNL     1      -9.765  16.300  -6.167  0.00  0.00    +0.078 C 
ATOM     15  C   UNL     1      -7.576  18.391  -5.454  0.00  0.00    +0.012 C 
ATOM     16  C   UNL     1      -2.435  15.929  -2.827  0.00  0.00    -0.024 C 
ATOM     17  C   UNL     1      -8.540  17.319  -8.193  0.00  0.00    +0.075 C 
ATOM     18  C   UNL     1      -3.686  18.039  -2.967  0.00  0.00    +0.016 C 
ATOM     19  C   UNL     1      -2.971  15.170  -1.857  0.00  0.00    -0.030 C 
ATOM     20  C   UNL     1      -9.659  16.451  -7.667  0.00  0.00    +0.134 C 
ENDROOT
TORSDOF 0
ENDMDL
