MODEL 1
REMARK VINA RESULT:      -8.4      0.000      0.000
REMARK  Name = C:\Users\atira\OneDrive\Desktop\pipeline\Automated_Molecular_Docking\first_stage_model_download\OR7D4_folder\ligands\Androstenone.pdb
REMARK  2 active torsions:
REMARK  status: ('A' for Active; 'I' for Inactive)
REMARK    1  A    between atoms: C_4  and  C_15
REMARK    2  A    between atoms: C_7  and  C_18
REMARK                            x       y       z     vdW  Elec       q    Type
REMARK                         _______ _______ _______ _____ _____    ______ ____
ROOT
ATOM      1  O   UNL     1       2.202   8.774   5.589  0.00  0.00    -0.297 OA
ATOM      2  C   UNL     1       4.736   7.873   0.760  0.00  0.00    -0.001 C 
ATOM      3  C   UNL     1       5.813   6.740   0.670  0.00  0.00    -0.003 C 
ATOM      4  C   UNL     1       4.641   8.474   2.212  0.00  0.00    -0.025 C 
ATOM      5  C   UNL     1       5.808   6.200  -0.761  0.00  0.00    +0.006 C 
ATOM      6  C   UNL     1       4.353   7.290   3.193  0.00  0.00    +0.002 C 
ATOM      7  C   UNL     1       6.190   7.286  -1.792  0.00  0.00    -0.011 C 
ATOM      8  C   UNL     1       4.883   8.931  -0.372  0.00  0.00    +0.005 C 
ATOM      9  C   UNL     1       5.539   5.635   1.697  0.00  0.00    +0.004 C 
ATOM     10  C   UNL     1       5.066   8.325  -1.780  0.00  0.00    +0.011 C 
ATOM     11  C   UNL     1       5.415   6.186   3.115  0.00  0.00    +0.005 C 
ATOM     12  C   UNL     1       3.441   9.457   2.313  0.00  0.00    +0.015 C 
ATOM     13  C   UNL     1       6.649   4.987  -1.150  0.00  0.00    +0.031 C 
ATOM     14  C   UNL     1       4.145   7.745   4.640  0.00  0.00    +0.078 C 
ATOM     15  C   UNL     1       5.939   9.235   2.581  0.00  0.00    +0.012 C 
ATOM     16  C   UNL     1       6.325   6.405  -3.007  0.00  0.00    -0.024 C 
ATOM     17  C   UNL     1       3.155   9.945   3.732  0.00  0.00    +0.075 C 
ATOM     18  C   UNL     1       7.560   7.965  -1.566  0.00  0.00    +0.016 C 
ATOM     19  C   UNL     1       6.629   5.147  -2.647  0.00  0.00    -0.030 C 
ATOM     20  C   UNL     1       3.061   8.796   4.707  0.00  0.00    +0.134 C 
ENDROOT
TORSDOF 0
ENDMDL
MODEL 2
REMARK VINA RESULT:      -8.2      2.700      5.174
REMARK  Name = C:\Users\atira\OneDrive\Desktop\pipeline\Automated_Molecular_Docking\first_stage_model_download\OR7D4_folder\ligands\Androstenone.pdb
REMARK  2 active torsions:
REMARK  status: ('A' for Active; 'I' for Inactive)
REMARK    1  A    between atoms: C_4  and  C_15
REMARK    2  A    between atoms: C_7  and  C_18
REMARK                            x       y       z     vdW  Elec       q    Type
REMARK                         _______ _______ _______ _____ _____    ______ ____
ROOT
ATOM      1  O   UNL     1       0.739   9.389  -1.332  0.00  0.00    -0.297 OA
ATOM      2  C   UNL     1       4.565   7.251   2.035  0.00  0.00    -0.001 C 
ATOM      3  C   UNL     1       4.643   7.761   3.513  0.00  0.00    -0.003 C 
ATOM      4  C   UNL     1       3.998   8.354   1.066  0.00  0.00    -0.025 C 
ATOM      5  C   UNL     1       5.172   6.615   4.377  0.00  0.00    +0.006 C 
ATOM      6  C   UNL     1       2.606   8.799   1.623  0.00  0.00    +0.002 C 
ATOM      7  C   UNL     1       6.596   6.184   3.960  0.00  0.00    -0.011 C 
ATOM      8  C   UNL     1       5.891   6.589   1.558  0.00  0.00    +0.005 C 
ATOM      9  C   UNL     1       3.276   8.257   3.998  0.00  0.00    +0.004 C 
ATOM     10  C   UNL     1       6.483   5.574   2.560  0.00  0.00    +0.011 C 
ATOM     11  C   UNL     1       2.684   9.311   3.067  0.00  0.00    +0.005 C 
ATOM     12  C   UNL     1       3.757   7.759  -0.351  0.00  0.00    +0.015 C 
ATOM     13  C   UNL     1       5.237   6.739   5.897  0.00  0.00    +0.031 C 
ATOM     14  C   UNL     1       1.893   9.812   0.723  0.00  0.00    +0.078 C 
ATOM     15  C   UNL     1       4.984   9.543   0.944  0.00  0.00    +0.012 C 
ATOM     16  C   UNL     1       6.896   5.258   5.111  0.00  0.00    -0.024 C 
ATOM     17  C   UNL     1       3.032   8.704  -1.307  0.00  0.00    +0.075 C 
ATOM     18  C   UNL     1       7.663   7.301   3.982  0.00  0.00    +0.016 C 
ATOM     19  C   UNL     1       6.179   5.602   6.193  0.00  0.00    -0.030 C 
ATOM     20  C   UNL     1       1.779   9.271  -0.684  0.00  0.00    +0.134 C 
ENDROOT
TORSDOF 0
ENDMDL
MODEL 3
REMARK VINA RESULT:      -8.1      3.678      5.652
REMARK  Name = C:\Users\atira\OneDrive\Desktop\pipeline\Automated_Molecular_Docking\first_stage_model_download\OR7D4_folder\ligands\Androstenone.pdb
REMARK  2 active torsions:
REMARK  status: ('A' for Active; 'I' for Inactive)
REMARK    1  A    between atoms: C_4  and  C_15
REMARK    2  A    between atoms: C_7  and  C_18
REMARK                            x       y       z     vdW  Elec       q    Type
REMARK                         _______ _______ _______ _____ _____    ______ ____
ROOT
ATOM      1  O   UNL     1       7.851  13.843   6.986  0.00  0.00    -0.297 OA
ATOM      2  C   UNL     1       6.965   8.866   4.750  0.00  0.00    -0.001 C 
ATOM      3  C   UNL     1       5.525   8.255   4.809  0.00  0.00    -0.003 C 
ATOM      4  C   UNL     1       7.235   9.842   5.955  0.00  0.00    -0.025 C 
ATOM      5  C   UNL     1       5.348   7.351   3.587  0.00  0.00    +0.006 C 
ATOM      6  C   UNL     1       6.116  10.936   5.934  0.00  0.00    +0.002 C 
ATOM      7  C   UNL     1       6.350   6.176   3.586  0.00  0.00    -0.011 C 
ATOM      8  C   UNL     1       8.065   7.787   4.532  0.00  0.00    +0.005 C 
ATOM      9  C   UNL     1       4.460   9.357   4.862  0.00  0.00    +0.004 C 
ATOM     10  C   UNL     1       7.745   6.781   3.405  0.00  0.00    +0.011 C 
ATOM     11  C   UNL     1       4.705  10.339   6.004  0.00  0.00    +0.005 C 
ATOM     12  C   UNL     1       8.595  10.573   5.767  0.00  0.00    +0.015 C 
ATOM     13  C   UNL     1       4.001   6.709   3.270  0.00  0.00    +0.031 C 
ATOM     14  C   UNL     1       6.307  12.012   7.005  0.00  0.00    +0.078 C 
ATOM     15  C   UNL     1       7.268   9.069   7.297  0.00  0.00    +0.012 C 
ATOM     16  C   UNL     1       5.769   5.386   2.442  0.00  0.00    -0.024 C 
ATOM     17  C   UNL     1       8.854  11.678   6.788  0.00  0.00    +0.075 C 
ATOM     18  C   UNL     1       6.311   5.266   4.835  0.00  0.00    +0.016 C 
ATOM     19  C   UNL     1       4.459   5.648   2.305  0.00  0.00    -0.030 C 
ATOM     20  C   UNL     1       7.683  12.627   6.890  0.00  0.00    +0.134 C 
ENDROOT
TORSDOF 0
ENDMDL
MODEL 4
REMARK VINA RESULT:      -7.6     17.248     20.900
REMARK  Name = C:\Users\atira\OneDrive\Desktop\pipeline\Automated_Molecular_Docking\first_stage_model_download\OR7D4_folder\ligands\Androstenone.pdb
REMARK  2 active torsions:
REMARK  status: ('A' for Active; 'I' for Inactive)
REMARK    1  A    between atoms: C_4  and  C_15
REMARK    2  A    between atoms: C_7  and  C_18
REMARK                            x       y       z     vdW  Elec       q    Type
REMARK                         _______ _______ _______ _____ _____    ______ ____
ROOT
ATOM      1  O   UNL     1      -7.557   8.731  11.697  0.00  0.00    -0.297 OA
ATOM      2  C   UNL     1     -12.779  10.422  11.049  0.00  0.00    -0.001 C 
ATOM      3  C   UNL     1     -13.606   9.880   9.835  0.00  0.00    -0.003 C 
ATOM      4  C   UNL     1     -11.237  10.457  10.737  0.00  0.00    -0.025 C 
ATOM      5  C   UNL     1     -15.079   9.853  10.245  0.00  0.00    +0.006 C 
ATOM      6  C   UNL     1     -10.809   9.013  10.314  0.00  0.00    +0.002 C 
ATOM      7  C   UNL     1     -15.614  11.263  10.577  0.00  0.00    -0.011 C 
ATOM      8  C   UNL     1     -13.356  11.749  11.621  0.00  0.00    +0.005 C 
ATOM      9  C   UNL     1     -13.108   8.495   9.404  0.00  0.00    +0.004 C 
ATOM     10  C   UNL     1     -14.884  11.730  11.838  0.00  0.00    +0.011 C 
ATOM     11  C   UNL     1     -11.609   8.487   9.117  0.00  0.00    +0.005 C 
ATOM     12  C   UNL     1     -10.433  10.819  12.018  0.00  0.00    +0.015 C 
ATOM     13  C   UNL     1     -16.140   9.243   9.332  0.00  0.00    +0.031 C 
ATOM     14  C   UNL     1      -9.304   8.880  10.066  0.00  0.00    +0.078 C 
ATOM     15  C   UNL     1     -10.919  11.504   9.639  0.00  0.00    +0.012 C 
ATOM     16  C   UNL     1     -17.079  10.926  10.692  0.00  0.00    -0.024 C 
ATOM     17  C   UNL     1      -8.919  10.693  11.858  0.00  0.00    +0.075 C 
ATOM     18  C   UNL     1     -15.474  12.310   9.449  0.00  0.00    +0.016 C 
ATOM     19  C   UNL     1     -17.372   9.838   9.961  0.00  0.00    -0.030 C 
ATOM     20  C   UNL     1      -8.531   9.355  11.275  0.00  0.00    +0.134 C 
ENDROOT
TORSDOF 0
ENDMDL
MODEL 5
REMARK VINA RESULT:      -7.5      8.267     10.376
REMARK  Name = C:\Users\atira\OneDrive\Desktop\pipeline\Automated_Molecular_Docking\first_stage_model_download\OR7D4_folder\ligands\Androstenone.pdb
REMARK  2 active torsions:
REMARK  status: ('A' for Active; 'I' for Inactive)
REMARK    1  A    between atoms: C_4  and  C_15
REMARK    2  A    between atoms: C_7  and  C_18
REMARK                            x       y       z     vdW  Elec       q    Type
REMARK                         _______ _______ _______ _____ _____    ______ ____
ROOT
ATOM      1  O   UNL     1      10.521  17.311   5.445  0.00  0.00    -0.297 OA
ATOM      2  C   UNL     1       7.470  13.573   8.142  0.00  0.00    -0.001 C 
ATOM      3  C   UNL     1       7.192  12.191   7.463  0.00  0.00    -0.003 C 
ATOM      4  C   UNL     1       7.688  14.713   7.078  0.00  0.00    -0.025 C 
ATOM      5  C   UNL     1       7.028  11.148   8.570  0.00  0.00    +0.006 C 
ATOM      6  C   UNL     1       8.851  14.261   6.135  0.00  0.00    +0.002 C 
ATOM      7  C   UNL     1       5.826  11.463   9.489  0.00  0.00    -0.011 C 
ATOM      8  C   UNL     1       6.436  13.913   9.254  0.00  0.00    +0.005 C 
ATOM      9  C   UNL     1       8.318  11.817   6.491  0.00  0.00    +0.004 C 
ATOM     10  C   UNL     1       6.166  12.754  10.238  0.00  0.00    +0.011 C 
ATOM     11  C   UNL     1       8.574  12.913   5.460  0.00  0.00    +0.005 C 
ATOM     12  C   UNL     1       8.145  16.026   7.776  0.00  0.00    +0.015 C 
ATOM     13  C   UNL     1       6.883   9.665   8.241  0.00  0.00    +0.031 C 
ATOM     14  C   UNL     1       9.233  15.322   5.100  0.00  0.00    +0.078 C 
ATOM     15  C   UNL     1       6.380  14.997   6.296  0.00  0.00    +0.012 C 
ATOM     16  C   UNL     1       5.800  10.176  10.273  0.00  0.00    -0.024 C 
ATOM     17  C   UNL     1       8.562  17.131   6.809  0.00  0.00    +0.075 C 
ATOM     18  C   UNL     1       4.460  11.591   8.777  0.00  0.00    +0.016 C 
ATOM     19  C   UNL     1       6.340   9.176   9.558  0.00  0.00    -0.030 C 
ATOM     20  C   UNL     1       9.553  16.631   5.786  0.00  0.00    +0.134 C 
ENDROOT
TORSDOF 0
ENDMDL
MODEL 6
REMARK VINA RESULT:      -7.4     16.518     17.729
REMARK  Name = C:\Users\atira\OneDrive\Desktop\pipeline\Automated_Molecular_Docking\first_stage_model_download\OR7D4_folder\ligands\Androstenone.pdb
REMARK  2 active torsions:
REMARK  status: ('A' for Active; 'I' for Inactive)
REMARK    1  A    between atoms: C_4  and  C_15
REMARK    2  A    between atoms: C_7  and  C_18
REMARK                            x       y       z     vdW  Elec       q    Type
REMARK                         _______ _______ _______ _____ _____    ______ ____
ROOT
ATOM      1  O   UNL     1     -11.723   6.799  -6.657  0.00  0.00    -0.297 OA
ATOM      2  C   UNL     1      -9.016   2.049  -7.476  0.00  0.00    -0.001 C 
ATOM      3  C   UNL     1      -7.810   2.028  -8.474  0.00  0.00    -0.003 C 
ATOM      4  C   UNL     1     -10.069   3.156  -7.857  0.00  0.00    -0.025 C 
ATOM      5  C   UNL     1      -6.832   0.949  -8.004  0.00  0.00    +0.006 C 
ATOM      6  C   UNL     1      -9.313   4.524  -7.917  0.00  0.00    +0.002 C 
ATOM      7  C   UNL     1      -7.470  -0.458  -8.019  0.00  0.00    -0.011 C 
ATOM      8  C   UNL     1      -9.620   0.635  -7.236  0.00  0.00    +0.005 C 
ATOM      9  C   UNL     1      -7.141   3.405  -8.560  0.00  0.00    +0.004 C 
ATOM     10  C   UNL     1      -8.568  -0.458  -6.952  0.00  0.00    +0.011 C 
ATOM     11  C   UNL     1      -8.139   4.508  -8.903  0.00  0.00    +0.005 C 
ATOM     12  C   UNL     1     -11.153   3.278  -6.748  0.00  0.00    +0.015 C 
ATOM     13  C   UNL     1      -5.477   0.764  -8.682  0.00  0.00    +0.031 C 
ATOM     14  C   UNL     1     -10.239   5.712  -8.190  0.00  0.00    +0.078 C 
ATOM     15  C   UNL     1     -10.767   2.817  -9.198  0.00  0.00    +0.012 C 
ATOM     16  C   UNL     1      -6.228  -1.270  -7.755  0.00  0.00    -0.024 C 
ATOM     17  C   UNL     1     -12.108   4.453  -6.939  0.00  0.00    +0.075 C 
ATOM     18  C   UNL     1      -8.036  -0.917  -9.381  0.00  0.00    +0.016 C 
ATOM     19  C   UNL     1      -5.135  -0.610  -8.171  0.00  0.00    -0.030 C 
ATOM     20  C   UNL     1     -11.362   5.744  -7.179  0.00  0.00    +0.134 C 
ENDROOT
TORSDOF 0
ENDMDL
MODEL 7
REMARK VINA RESULT:      -7.3     17.715     18.846
REMARK  Name = C:\Users\atira\OneDrive\Desktop\pipeline\Automated_Molecular_Docking\first_stage_model_download\OR7D4_folder\ligands\Androstenone.pdb
REMARK  2 active torsions:
REMARK  status: ('A' for Active; 'I' for Inactive)
REMARK    1  A    between atoms: C_4  and  C_15
REMARK    2  A    between atoms: C_7  and  C_18
REMARK                            x       y       z     vdW  Elec       q    Type
REMARK                         _______ _______ _______ _____ _____    ______ ____
ROOT
ATOM      1  O   UNL     1     -10.337   8.703  -8.441  0.00  0.00    -0.297 OA
ATOM      2  C   UNL     1     -10.844   3.393  -6.992  0.00  0.00    -0.001 C 
ATOM      3  C   UNL     1      -9.930   2.328  -7.686  0.00  0.00    -0.003 C 
ATOM      4  C   UNL     1     -11.112   4.631  -7.927  0.00  0.00    -0.025 C 
ATOM      5  C   UNL     1      -9.703   1.186  -6.694  0.00  0.00    +0.006 C 
ATOM      6  C   UNL     1      -9.721   5.213  -8.347  0.00  0.00    +0.002 C 
ATOM      7  C   UNL     1     -11.023   0.483  -6.308  0.00  0.00    -0.011 C 
ATOM      8  C   UNL     1     -12.123   2.767  -6.364  0.00  0.00    +0.005 C 
ATOM      9  C   UNL     1      -8.609   2.953  -8.149  0.00  0.00    +0.004 C 
ATOM     10  C   UNL     1     -11.855   1.500  -5.523  0.00  0.00    +0.011 C 
ATOM     11  C   UNL     1      -8.831   4.174  -9.038  0.00  0.00    +0.005 C 
ATOM     12  C   UNL     1     -11.861   5.748  -7.145  0.00  0.00    +0.015 C 
ATOM     13  C   UNL     1      -8.737   0.047  -7.010  0.00  0.00    +0.031 C 
ATOM     14  C   UNL     1      -9.832   6.485  -9.190  0.00  0.00    +0.078 C 
ATOM     15  C   UNL     1     -11.967   4.224  -9.153  0.00  0.00    +0.012 C 
ATOM     16  C   UNL     1     -10.442  -0.686  -5.554  0.00  0.00    -0.024 C 
ATOM     17  C   UNL     1     -11.996   7.060  -7.914  0.00  0.00    +0.075 C 
ATOM     18  C   UNL     1     -11.839  -0.094  -7.486  0.00  0.00    +0.016 C 
ATOM     19  C   UNL     1      -9.198  -0.953  -5.983  0.00  0.00    -0.030 C 
ATOM     20  C   UNL     1     -10.670   7.518  -8.472  0.00  0.00    +0.134 C 
ENDROOT
TORSDOF 0
ENDMDL
MODEL 8
REMARK VINA RESULT:      -7.2     15.142     17.438
REMARK  Name = C:\Users\atira\OneDrive\Desktop\pipeline\Automated_Molecular_Docking\first_stage_model_download\OR7D4_folder\ligands\Androstenone.pdb
REMARK  2 active torsions:
REMARK  status: ('A' for Active; 'I' for Inactive)
REMARK    1  A    between atoms: C_4  and  C_15
REMARK    2  A    between atoms: C_7  and  C_18
REMARK                            x       y       z     vdW  Elec       q    Type
REMARK                         _______ _______ _______ _____ _____    ______ ____
ROOT
ATOM      1  O   UNL     1     -10.569  11.582  13.672  0.00  0.00    -0.297 OA
ATOM      2  C   UNL     1      -9.767  10.652   8.283  0.00  0.00    -0.001 C 
ATOM      3  C   UNL     1     -10.995  10.274   7.389  0.00  0.00    -0.003 C 
ATOM      4  C   UNL     1      -9.971  10.199   9.777  0.00  0.00    -0.025 C 
ATOM      5  C   UNL     1     -10.719  10.781   5.973  0.00  0.00    +0.006 C 
ATOM      6  C   UNL     1     -11.305  10.839  10.285  0.00  0.00    +0.002 C 
ATOM      7  C   UNL     1      -9.471  10.114   5.352  0.00  0.00    -0.011 C 
ATOM      8  C   UNL     1      -8.411  10.220   7.653  0.00  0.00    +0.005 C 
ATOM      9  C   UNL     1     -12.293  10.856   7.960  0.00  0.00    +0.004 C 
ATOM     10  C   UNL     1      -8.263  10.591   6.162  0.00  0.00    +0.011 C 
ATOM     11  C   UNL     1     -12.510  10.458   9.417  0.00  0.00    +0.005 C 
ATOM     12  C   UNL     1      -8.825  10.753  10.672  0.00  0.00    +0.015 C 
ATOM     13  C   UNL     1     -11.784  10.695   4.883  0.00  0.00    +0.031 C 
ATOM     14  C   UNL     1     -11.584  10.553  11.763  0.00  0.00    +0.078 C 
ATOM     15  C   UNL     1      -9.985   8.654   9.889  0.00  0.00    +0.012 C 
ATOM     16  C   UNL     1      -9.622  10.624   3.942  0.00  0.00    -0.024 C 
ATOM     17  C   UNL     1      -9.038  10.524  12.166  0.00  0.00    +0.075 C 
ATOM     18  C   UNL     1      -9.505   8.571   5.285  0.00  0.00    +0.016 C 
ATOM     19  C   UNL     1     -10.909  10.895   3.673  0.00  0.00    -0.030 C 
ATOM     20  C   UNL     1     -10.407  10.981  12.610  0.00  0.00    +0.134 C 
ENDROOT
TORSDOF 0
ENDMDL
MODEL 9
REMARK VINA RESULT:      -7.1     17.729     18.975
REMARK  Name = C:\Users\atira\OneDrive\Desktop\pipeline\Automated_Molecular_Docking\first_stage_model_download\OR7D4_folder\ligands\Androstenone.pdb
REMARK  2 active torsions:
REMARK  status: ('A' for Active; 'I' for Inactive)
REMARK    1  A    between atoms: C_4  and  C_15
REMARK    2  A    between atoms: C_7  and  C_18
REMARK                            x       y       z     vdW  Elec       q    Type
REMARK                         _______ _______ _______ _____ _____    ______ ____
ROOT
ATOM      1  O   UNL     1     -10.126  -2.432  -5.291  0.00  0.00    -0.297 OA
ATOM      2  C   UNL     1      -9.852   2.727  -7.257  0.00  0.00    -0.001 C 
ATOM      3  C   UNL     1     -11.178   3.453  -7.664  0.00  0.00    -0.003 C 
ATOM      4  C   UNL     1      -9.972   1.164  -7.409  0.00  0.00    -0.025 C 
ATOM      5  C   UNL     1     -10.974   4.954  -7.452  0.00  0.00    +0.006 C 
ATOM      6  C   UNL     1     -11.199   0.701  -6.556  0.00  0.00    +0.002 C 
ATOM      7  C   UNL     1      -9.845   5.517  -8.343  0.00  0.00    -0.011 C 
ATOM      8  C   UNL     1      -8.596   3.349  -7.932  0.00  0.00    +0.005 C 
ATOM      9  C   UNL     1     -12.368   2.920  -6.859  0.00  0.00    +0.004 C 
ATOM     10  C   UNL     1      -8.537   4.890  -7.853  0.00  0.00    +0.011 C 
ATOM     11  C   UNL     1     -12.500   1.403  -6.963  0.00  0.00    +0.005 C 
ATOM     12  C   UNL     1      -8.713   0.465  -6.822  0.00  0.00    +0.015 C 
ATOM     13  C   UNL     1     -12.128   5.938  -7.625  0.00  0.00    +0.031 C 
ATOM     14  C   UNL     1     -11.380  -0.819  -6.540  0.00  0.00    +0.078 C 
ATOM     15  C   UNL     1     -10.113   0.763  -8.899  0.00  0.00    +0.012 C 
ATOM     16  C   UNL     1     -10.065   6.986  -8.084  0.00  0.00    -0.024 C 
ATOM     17  C   UNL     1      -8.823  -1.057  -6.754  0.00  0.00    +0.075 C 
ATOM     18  C   UNL     1     -10.020   5.291  -9.862  0.00  0.00    +0.016 C 
ATOM     19  C   UNL     1     -11.341   7.217  -7.737  0.00  0.00    -0.030 C 
ATOM     20  C   UNL     1     -10.105  -1.493  -6.087  0.00  0.00    +0.134 C 
ENDROOT
TORSDOF 0
ENDMDL
